+ 2.007 /NodeList/6/DeviceList/0/$ns3::CsmaNetDevice/TxQueue/Enqueue ns3::EthernetHeader ( length/type=0x806, source=00:00:00:00:00:08, destination=ff:ff:ff:ff:ff:ff) ns3::ArpHeader (request source mac: 00-06-00:00:00:00:00:08 source ipv4: 10.1.2.6 dest ipv4: 10.1.2.5) Payload (size=18) ns3::EthernetTrailer (fcs=0)
- 2.007 /NodeList/6/DeviceList/0/$ns3::CsmaNetDevice/TxQueue/Dequeue ns3::EthernetHeader ( length/type=0x806, source=00:00:00:00:00:08, destination=ff:ff:ff:ff:ff:ff) ns3::ArpHeader (request source mac: 00-06-00:00:00:00:00:08 source ipv4: 10.1.2.6 dest ipv4: 10.1.2.5) Payload (size=18) ns3::EthernetTrailer (fcs=0)
r 2.00701 /NodeList/1/DeviceList/1/$ns3::CsmaNetDevice/MacRx ns3::EthernetHeader ( length/type=0x806, source=00:00:00:00:00:08, destination=ff:ff:ff:ff:ff:ff) ns3::ArpHeader (request source mac: 00-06-00:00:00:00:00:08 source ipv4: 10.1.2.6 dest ipv4: 10.1.2.5) Payload (size=18) ns3::EthernetTrailer (fcs=0)
r 2.00701 /NodeList/2/DeviceList/0/$ns3::CsmaNetDevice/MacRx ns3::EthernetHeader ( length/type=0x806, source=00:00:00:00:00:08, destination=ff:ff:ff:ff:ff:ff) ns3::ArpHeader (request source mac: 00-06-00:00:00:00:00:08 source ipv4: 10.1.2.6 dest ipv4: 10.1.2.5) Payload (size=18) ns3::EthernetTrailer (fcs=0)
r 2.00701 /NodeList/3/DeviceList/0/$ns3::CsmaNetDevice/MacRx ns3::EthernetHeader ( length/type=0x806, source=00:00:00:00:00:08, destination=ff:ff:ff:ff:ff:ff) ns3::ArpHeader (request source mac: 00-06-00:00:00:00:00:08 source ipv4: 10.1.2.6 dest ipv4: 10.1.2.5) Payload (size=18) ns3::EthernetTrailer (fcs=0)
r 2.00701 /NodeList/4/DeviceList/0/$ns3::CsmaNetDevice/MacRx ns3::EthernetHeader ( length/type=0x806, source=00:00:00:00:00:08, destination=ff:ff:ff:ff:ff:ff) ns3::ArpHeader (request source mac: 00-06-00:00:00:00:00:08 source ipv4: 10.1.2.6 dest ipv4: 10.1.2.5) Payload (size=18) ns3::EthernetTrailer (fcs=0)
r 2.00701 /NodeList/5/DeviceList/0/$ns3::CsmaNetDevice/MacRx ns3::EthernetHeader ( length/type=0x806, source=00:00:00:00:00:08, destination=ff:ff:ff:ff:ff:ff) ns3::ArpHeader (request source mac: 00-06-00:00:00:00:00:08 source ipv4: 10.1.2.6 dest ipv4: 10.1.2.5) Payload (size=18) ns3::EthernetTrailer (fcs=0)
+ 2.00701 /NodeList/5/DeviceList/0/$ns3::CsmaNetDevice/TxQueue/Enqueue ns3::EthernetHeader ( length/type=0x806, source=00:00:00:00:00:07, destination=00:00:00:00:00:08) ns3::ArpHeader (reply source mac: 00-06-00:00:00:00:00:07 source ipv4: 10.1.2.5 dest mac: 00-06-00:00:00:00:00:08 dest ipv4: 10.1.2.6) Payload (size=18) ns3::EthernetTrailer (fcs=0)
- 2.00701 /NodeList/5/DeviceList/0/$ns3::CsmaNetDevice/TxQueue/Dequeue ns3::EthernetHeader ( length/type=0x806, source=00:00:00:00:00:07, destination=00:00:00:00:00:08) ns3::ArpHeader (reply source mac: 00-06-00:00:00:00:00:07 source ipv4: 10.1.2.5 dest mac: 00-06-00:00:00:00:00:08 dest ipv4: 10.1.2.6) Payload (size=18) ns3::EthernetTrailer (fcs=0)
r 2.00701 /NodeList/7/DeviceList/0/$ns3::CsmaNetDevice/MacRx ns3::EthernetHeader ( length/type=0x806, source=00:00:00:00:00:08, destination=ff:ff:ff:ff:ff:ff) ns3::ArpHeader (request source mac: 00-06-00:00:00:00:00:08 source ipv4: 10.1.2.6 dest ipv4: 10.1.2.5) Payload (size=18) ns3::EthernetTrailer (fcs=0)
r 2.00702 /NodeList/6/DeviceList/0/$ns3::CsmaNetDevice/MacRx ns3::EthernetHeader ( length/type=0x806, source=00:00:00:00:00:07, destination=00:00:00:00:00:08) ns3::ArpHeader (reply source mac: 00-06-00:00:00:00:00:07 source ipv4: 10.1.2.5 dest mac: 00-06-00:00:00:00:00:08 dest ipv4: 10.1.2.6) Payload (size=18) ns3::EthernetTrailer (fcs=0)
+ 2.00702 /NodeList/6/DeviceList/0/$ns3::CsmaNetDevice/TxQueue/Enqueue ns3::EthernetHeader ( length/type=0x800, source=00:00:00:00:00:08, destination=00:00:00:00:00:07) ns3::Ipv4Header (tos 0x0 DSCP Default ECN Not-ECT ttl 64 id 0 protocol 17 offset (bytes) 0 flags [none] length: 1052 10.1.2.6 > 10.1.2.5) ns3::UdpHeader (length: 1032 49153 > 19) Payload (size=1024) ns3::EthernetTrailer (fcs=0)
- 2.00702 /NodeList/6/DeviceList/0/$ns3::CsmaNetDevice/TxQueue/Dequeue ns3::EthernetHeader ( length/type=0x800, source=00:00:00:00:00:08, destination=00:00:00:00:00:07) ns3::Ipv4Header (tos 0x0 DSCP Default ECN Not-ECT ttl 64 id 0 protocol 17 offset (bytes) 0 flags [none] length: 1052 10.1.2.6 > 10.1.2.5) ns3::UdpHeader (length: 1032 49153 > 19) Payload (size=1024) ns3::EthernetTrailer (fcs=0)
r 2.00712 /NodeList/5/DeviceList/0/$ns3::CsmaNetDevice/MacRx ns3::EthernetHeader ( length/type=0x800, source=00:00:00:00:00:08, destination=00:00:00:00:00:07) ns3::Ipv4Header (tos 0x0 DSCP Default ECN Not-ECT ttl 64 id 0 protocol 17 offset (bytes) 0 flags [none] length: 1052 10.1.2.6 > 10.1.2.5) ns3::UdpHeader (length: 1032 49153 > 19) Payload (size=1024) ns3::EthernetTrailer (fcs=0)
+ 2.00812 /NodeList/5/DeviceList/0/$ns3::CsmaNetDevice/TxQueue/Enqueue ns3::EthernetHeader ( length/type=0x806, source=00:00:00:00:00:07, destination=ff:ff:ff:ff:ff:ff) ns3::ArpHeader (request source mac: 00-06-00:00:00:00:00:07 source ipv4: 10.1.2.5 dest ipv4: 10.1.2.6) Payload (size=18) ns3::EthernetTrailer (fcs=0)
- 2.00812 /NodeList/5/DeviceList/0/$ns3::CsmaNetDevice/TxQueue/Dequeue ns3::EthernetHeader ( length/type=0x806, source=00:00:00:00:00:07, destination=ff:ff:ff:ff:ff:ff) ns3::ArpHeader (request source mac: 00-06-00:00:00:00:00:07 source ipv4: 10.1.2.5 dest ipv4: 10.1.2.6) Payload (size=18) ns3::EthernetTrailer (fcs=0)
r 2.00813 /NodeList/1/DeviceList/1/$ns3::CsmaNetDevice/MacRx ns3::EthernetHeader ( length/type=0x806, source=00:00:00:00:00:07, destination=ff:ff:ff:ff:ff:ff) ns3::ArpHeader (request source mac: 00-06-00:00:00:00:00:07 source ipv4: 10.1.2.5 dest ipv4: 10.1.2.6) Payload (size=18) ns3::EthernetTrailer (fcs=0)
r 2.00813 /NodeList/2/DeviceList/0/$ns3::CsmaNetDevice/MacRx ns3::EthernetHeader ( length/type=0x806, source=00:00:00:00:00:07, destination=ff:ff:ff:ff:ff:ff) ns3::ArpHeader (request source mac: 00-06-00:00:00:00:00:07 source ipv4: 10.1.2.5 dest ipv4: 10.1.2.6) Payload (size=18) ns3::EthernetTrailer (fcs=0)
r 2.00813 /NodeList/3/DeviceList/0/$ns3::CsmaNetDevice/MacRx ns3::EthernetHeader ( length/type=0x806, source=00:00:00:00:00:07, destination=ff:ff:ff:ff:ff:ff) ns3::ArpHeader (request source mac: 00-06-00:00:00:00:00:07 source ipv4: 10.1.2.5 dest ipv4: 10.1.2.6) Payload (size=18) ns3::EthernetTrailer (fcs=0)
r 2.00813 /NodeList/4/DeviceList/0/$ns3::CsmaNetDevice/MacRx ns3::EthernetHeader ( length/type=0x806, source=00:00:00:00:00:07, destination=ff:ff:ff:ff:ff:ff) ns3::ArpHeader (request source mac: 00-06-00:00:00:00:00:07 source ipv4: 10.1.2.5 dest ipv4: 10.1.2.6) Payload (size=18) ns3::EthernetTrailer (fcs=0)
r 2.00813 /NodeList/6/DeviceList/0/$ns3::CsmaNetDevice/MacRx ns3::EthernetHeader ( length/type=0x806, source=00:00:00:00:00:07, destination=ff:ff:ff:ff:ff:ff) ns3::ArpHeader (request source mac: 00-06-00:00:00:00:00:07 source ipv4: 10.1.2.5 dest ipv4: 10.1.2.6) Payload (size=18) ns3::EthernetTrailer (fcs=0)
+ 2.00813 /NodeList/6/DeviceList/0/$ns3::CsmaNetDevice/TxQueue/Enqueue ns3::EthernetHeader ( length/type=0x806, source=00:00:00:00:00:08, destination=00:00:00:00:00:07) ns3::ArpHeader (reply source mac: 00-06-00:00:00:00:00:08 source ipv4: 10.1.2.6 dest mac: 00-06-00:00:00:00:00:07 dest ipv4: 10.1.2.5) Payload (size=18) ns3::EthernetTrailer (fcs=0)
- 2.00813 /NodeList/6/DeviceList/0/$ns3::CsmaNetDevice/TxQueue/Dequeue ns3::EthernetHeader ( length/type=0x806, source=00:00:00:00:00:08, destination=00:00:00:00:00:07) ns3::ArpHeader (reply source mac: 00-06-00:00:00:00:00:08 source ipv4: 10.1.2.6 dest mac: 00-06-00:00:00:00:00:07 dest ipv4: 10.1.2.5) Payload (size=18) ns3::EthernetTrailer (fcs=0)
r 2.00813 /NodeList/7/DeviceList/0/$ns3::CsmaNetDevice/MacRx ns3::EthernetHeader ( length/type=0x806, source=00:00:00:00:00:07, destination=ff:ff:ff:ff:ff:ff) ns3::ArpHeader (request source mac: 00-06-00:00:00:00:00:07 source ipv4: 10.1.2.5 dest ipv4: 10.1.2.6) Payload (size=18) ns3::EthernetTrailer (fcs=0)
r 2.00814 /NodeList/5/DeviceList/0/$ns3::CsmaNetDevice/MacRx ns3::EthernetHeader ( length/type=0x806, source=00:00:00:00:00:08, destination=00:00:00:00:00:07) ns3::ArpHeader (reply source mac: 00-06-00:00:00:00:00:08 source ipv4: 10.1.2.6 dest mac: 00-06-00:00:00:00:00:07 dest ipv4: 10.1.2.5) Payload (size=18) ns3::EthernetTrailer (fcs=0)
+ 2.00814 /NodeList/5/DeviceList/0/$ns3::CsmaNetDevice/TxQueue/Enqueue ns3::EthernetHeader ( length/type=0x800, source=00:00:00:00:00:07, destination=00:00:00:00:00:08) ns3::Ipv4Header (tos 0x0 DSCP Default ECN Not-ECT ttl 64 id 0 protocol 17 offset (bytes) 0 flags [none] length: 1052 10.1.2.5 > 10.1.2.6) ns3::UdpHeader (length: 1032 19 > 49153) Payload (size=1024) ns3::EthernetTrailer (fcs=0)
- 2.00814 /NodeList/5/DeviceList/0/$ns3::CsmaNetDevice/TxQueue/Dequeue ns3::EthernetHeader ( length/type=0x800, source=00:00:00:00:00:07, destination=00:00:00:00:00:08) ns3::Ipv4Header (tos 0x0 DSCP Default ECN Not-ECT ttl 64 id 0 protocol 17 offset (bytes) 0 flags [none] length: 1052 10.1.2.5 > 10.1.2.6) ns3::UdpHeader (length: 1032 19 > 49153) Payload (size=1024) ns3::EthernetTrailer (fcs=0)
r 2.00824 /NodeList/6/DeviceList/0/$ns3::CsmaNetDevice/MacRx ns3::EthernetHeader ( length/type=0x800, source=00:00:00:00:00:07, destination=00:00:00:00:00:08) ns3::Ipv4Header (tos 0x0 DSCP Default ECN Not-ECT ttl 64 id 0 protocol 17 offset (bytes) 0 flags [none] length: 1052 10.1.2.5 > 10.1.2.6) ns3::UdpHeader (length: 1032 19 > 49153) Payload (size=1024) ns3::EthernetTrailer (fcs=0)
+ 3.009 /NodeList/4/DeviceList/0/$ns3::CsmaNetDevice/TxQueue/Enqueue ns3::EthernetHeader ( length/type=0x806, source=00:00:00:00:00:06, destination=ff:ff:ff:ff:ff:ff) ns3::ArpHeader (request source mac: 00-06-00:00:00:00:00:06 source ipv4: 10.1.2.4 dest ipv4: 10.1.2.5) Payload (size=18) ns3::EthernetTrailer (fcs=0)
- 3.009 /NodeList/4/DeviceList/0/$ns3::CsmaNetDevice/TxQueue/Dequeue ns3::EthernetHeader ( length/type=0x806, source=00:00:00:00:00:06, destination=ff:ff:ff:ff:ff:ff) ns3::ArpHeader (request source mac: 00-06-00:00:00:00:00:06 source ipv4: 10.1.2.4 dest ipv4: 10.1.2.5) Payload (size=18) ns3::EthernetTrailer (fcs=0)
r 3.00901 /NodeList/1/DeviceList/1/$ns3::CsmaNetDevice/MacRx ns3::EthernetHeader ( length/type=0x806, source=00:00:00:00:00:06, destination=ff:ff:ff:ff:ff:ff) ns3::ArpHeader (request source mac: 00-06-00:00:00:00:00:06 source ipv4: 10.1.2.4 dest ipv4: 10.1.2.5) Payload (size=18) ns3::EthernetTrailer (fcs=0)
r 3.00901 /NodeList/2/DeviceList/0/$ns3::CsmaNetDevice/MacRx ns3::EthernetHeader ( length/type=0x806, source=00:00:00:00:00:06, destination=ff:ff:ff:ff:ff:ff) ns3::ArpHeader (request source mac: 00-06-00:00:00:00:00:06 source ipv4: 10.1.2.4 dest ipv4: 10.1.2.5) Payload (size=18) ns3::EthernetTrailer (fcs=0)
r 3.00901 /NodeList/3/DeviceList/0/$ns3::CsmaNetDevice/MacRx ns3::EthernetHeader ( length/type=0x806, source=00:00:00:00:00:06, destination=ff:ff:ff:ff:ff:ff) ns3::ArpHeader (request source mac: 00-06-00:00:00:00:00:06 source ipv4: 10.1.2.4 dest ipv4: 10.1.2.5) Payload (size=18) ns3::EthernetTrailer (fcs=0)
r 3.00901 /NodeList/5/DeviceList/0/$ns3::CsmaNetDevice/MacRx ns3::EthernetHeader ( length/type=0x806, source=00:00:00:00:00:06, destination=ff:ff:ff:ff:ff:ff) ns3::ArpHeader (request source mac: 00-06-00:00:00:00:00:06 source ipv4: 10.1.2.4 dest ipv4: 10.1.2.5) Payload (size=18) ns3::EthernetTrailer (fcs=0)
+ 3.00901 /NodeList/5/DeviceList/0/$ns3::CsmaNetDevice/TxQueue/Enqueue ns3::EthernetHeader ( length/type=0x806, source=00:00:00:00:00:07, destination=00:00:00:00:00:06) ns3::ArpHeader (reply source mac: 00-06-00:00:00:00:00:07 source ipv4: 10.1.2.5 dest mac: 00-06-00:00:00:00:00:06 dest ipv4: 10.1.2.4) Payload (size=18) ns3::EthernetTrailer (fcs=0)
- 3.00901 /NodeList/5/DeviceList/0/$ns3::CsmaNetDevice/TxQueue/Dequeue ns3::EthernetHeader ( length/type=0x806, source=00:00:00:00:00:07, destination=00:00:00:00:00:06) ns3::ArpHeader (reply source mac: 00-06-00:00:00:00:00:07 source ipv4: 10.1.2.5 dest mac: 00-06-00:00:00:00:00:06 dest ipv4: 10.1.2.4) Payload (size=18) ns3::EthernetTrailer (fcs=0)
r 3.00901 /NodeList/6/DeviceList/0/$ns3::CsmaNetDevice/MacRx ns3::EthernetHeader ( length/type=0x806, source=00:00:00:00:00:06, destination=ff:ff:ff:ff:ff:ff) ns3::ArpHeader (request source mac: 00-06-00:00:00:00:00:06 source ipv4: 10.1.2.4 dest ipv4: 10.1.2.5) Payload (size=18) ns3::EthernetTrailer (fcs=0)
r 3.00901 /NodeList/7/DeviceList/0/$ns3::CsmaNetDevice/MacRx ns3::EthernetHeader ( length/type=0x806, source=00:00:00:00:00:06, destination=ff:ff:ff:ff:ff:ff) ns3::ArpHeader (request source mac: 00-06-00:00:00:00:00:06 source ipv4: 10.1.2.4 dest ipv4: 10.1.2.5) Payload (size=18) ns3::EthernetTrailer (fcs=0)
r 3.00902 /NodeList/4/DeviceList/0/$ns3::CsmaNetDevice/MacRx ns3::EthernetHeader ( length/type=0x806, source=00:00:00:00:00:07, destination=00:00:00:00:00:06) ns3::ArpHeader (reply source mac: 00-06-00:00:00:00:00:07 source ipv4: 10.1.2.5 dest mac: 00-06-00:00:00:00:00:06 dest ipv4: 10.1.2.4) Payload (size=18) ns3::EthernetTrailer (fcs=0)
+ 3.00902 /NodeList/4/DeviceList/0/$ns3::CsmaNetDevice/TxQueue/Enqueue ns3::EthernetHeader ( length/type=0x800, source=00:00:00:00:00:06, destination=00:00:00:00:00:07) ns3::Ipv4Header (tos 0x0 DSCP Default ECN Not-ECT ttl 64 id 0 protocol 17 offset (bytes) 0 flags [none] length: 1052 10.1.2.4 > 10.1.2.5) ns3::UdpHeader (length: 1032 49153 > 19) Payload (size=1024) ns3::EthernetTrailer (fcs=0)
- 3.00902 /NodeList/4/DeviceList/0/$ns3::CsmaNetDevice/TxQueue/Dequeue ns3::EthernetHeader ( length/type=0x800, source=00:00:00:00:00:06, destination=00:00:00:00:00:07) ns3::Ipv4Header (tos 0x0 DSCP Default ECN Not-ECT ttl 64 id 0 protocol 17 offset (bytes) 0 flags [none] length: 1052 10.1.2.4 > 10.1.2.5) ns3::UdpHeader (length: 1032 49153 > 19) Payload (size=1024) ns3::EthernetTrailer (fcs=0)
r 3.00912 /NodeList/5/DeviceList/0/$ns3::CsmaNetDevice/MacRx ns3::EthernetHeader ( length/type=0x800, source=00:00:00:00:00:06, destination=00:00:00:00:00:07) ns3::Ipv4Header (tos 0x0 DSCP Default ECN Not-ECT ttl 64 id 0 protocol 17 offset (bytes) 0 flags [none] length: 1052 10.1.2.4 > 10.1.2.5) ns3::UdpHeader (length: 1032 49153 > 19) Payload (size=1024) ns3::EthernetTrailer (fcs=0)
+ 3.01512 /NodeList/5/DeviceList/0/$ns3::CsmaNetDevice/TxQueue/Enqueue ns3::EthernetHeader ( length/type=0x806, source=00:00:00:00:00:07, destination=ff:ff:ff:ff:ff:ff) ns3::ArpHeader (request source mac: 00-06-00:00:00:00:00:07 source ipv4: 10.1.2.5 dest ipv4: 10.1.2.4) Payload (size=18) ns3::EthernetTrailer (fcs=0)
- 3.01512 /NodeList/5/DeviceList/0/$ns3::CsmaNetDevice/TxQueue/Dequeue ns3::EthernetHeader ( length/type=0x806, source=00:00:00:00:00:07, destination=ff:ff:ff:ff:ff:ff) ns3::ArpHeader (request source mac: 00-06-00:00:00:00:00:07 source ipv4: 10.1.2.5 dest ipv4: 10.1.2.4) Payload (size=18) ns3::EthernetTrailer (fcs=0)
r 3.01513 /NodeList/1/DeviceList/1/$ns3::CsmaNetDevice/MacRx ns3::EthernetHeader ( length/type=0x806, source=00:00:00:00:00:07, destination=ff:ff:ff:ff:ff:ff) ns3::ArpHeader (request source mac: 00-06-00:00:00:00:00:07 source ipv4: 10.1.2.5 dest ipv4: 10.1.2.4) Payload (size=18) ns3::EthernetTrailer (fcs=0)
r 3.01513 /NodeList/2/DeviceList/0/$ns3::CsmaNetDevice/MacRx ns3::EthernetHeader ( length/type=0x806, source=00:00:00:00:00:07, destination=ff:ff:ff:ff:ff:ff) ns3::ArpHeader (request source mac: 00-06-00:00:00:00:00:07 source ipv4: 10.1.2.5 dest ipv4: 10.1.2.4) Payload (size=18) ns3::EthernetTrailer (fcs=0)
r 3.01513 /NodeList/3/DeviceList/0/$ns3::CsmaNetDevice/MacRx ns3::EthernetHeader ( length/type=0x806, source=00:00:00:00:00:07, destination=ff:ff:ff:ff:ff:ff) ns3::ArpHeader (request source mac: 00-06-00:00:00:00:00:07 source ipv4: 10.1.2.5 dest ipv4: 10.1.2.4) Payload (size=18) ns3::EthernetTrailer (fcs=0)
r 3.01513 /NodeList/4/DeviceList/0/$ns3::CsmaNetDevice/MacRx ns3::EthernetHeader ( length/type=0x806, source=00:00:00:00:00:07, destination=ff:ff:ff:ff:ff:ff) ns3::ArpHeader (request source mac: 00-06-00:00:00:00:00:07 source ipv4: 10.1.2.5 dest ipv4: 10.1.2.4) Payload (size=18) ns3::EthernetTrailer (fcs=0)
+ 3.01513 /NodeList/4/DeviceList/0/$ns3::CsmaNetDevice/TxQueue/Enqueue ns3::EthernetHeader ( length/type=0x806, source=00:00:00:00:00:06, destination=00:00:00:00:00:07) ns3::ArpHeader (reply source mac: 00-06-00:00:00:00:00:06 source ipv4: 10.1.2.4 dest mac: 00-06-00:00:00:00:00:07 dest ipv4: 10.1.2.5) Payload (size=18) ns3::EthernetTrailer (fcs=0)
- 3.01513 /NodeList/4/DeviceList/0/$ns3::CsmaNetDevice/TxQueue/Dequeue ns3::EthernetHeader ( length/type=0x806, source=00:00:00:00:00:06, destination=00:00:00:00:00:07) ns3::ArpHeader (reply source mac: 00-06-00:00:00:00:00:06 source ipv4: 10.1.2.4 dest mac: 00-06-00:00:00:00:00:07 dest ipv4: 10.1.2.5) Payload (size=18) ns3::EthernetTrailer (fcs=0)
r 3.01513 /NodeList/6/DeviceList/0/$ns3::CsmaNetDevice/MacRx ns3::EthernetHeader ( length/type=0x806, source=00:00:00:00:00:07, destination=ff:ff:ff:ff:ff:ff) ns3::ArpHeader (request source mac: 00-06-00:00:00:00:00:07 source ipv4: 10.1.2.5 dest ipv4: 10.1.2.4) Payload (size=18) ns3::EthernetTrailer (fcs=0)
r 3.01513 /NodeList/7/DeviceList/0/$ns3::CsmaNetDevice/MacRx ns3::EthernetHeader ( length/type=0x806, source=00:00:00:00:00:07, destination=ff:ff:ff:ff:ff:ff) ns3::ArpHeader (request source mac: 00-06-00:00:00:00:00:07 source ipv4: 10.1.2.5 dest ipv4: 10.1.2.4) Payload (size=18) ns3::EthernetTrailer (fcs=0)
r 3.01514 /NodeList/5/DeviceList/0/$ns3::CsmaNetDevice/MacRx ns3::EthernetHeader ( length/type=0x806, source=00:00:00:00:00:06, destination=00:00:00:00:00:07) ns3::ArpHeader (reply source mac: 00-06-00:00:00:00:00:06 source ipv4: 10.1.2.4 dest mac: 00-06-00:00:00:00:00:07 dest ipv4: 10.1.2.5) Payload (size=18) ns3::EthernetTrailer (fcs=0)
+ 3.01514 /NodeList/5/DeviceList/0/$ns3::CsmaNetDevice/TxQueue/Enqueue ns3::EthernetHeader ( length/type=0x800, source=00:00:00:00:00:07, destination=00:00:00:00:00:06) ns3::Ipv4Header (tos 0x0 DSCP Default ECN Not-ECT ttl 64 id 0 protocol 17 offset (bytes) 0 flags [none] length: 1052 10.1.2.5 > 10.1.2.4) ns3::UdpHeader (length: 1032 19 > 49153) Payload (size=1024) ns3::EthernetTrailer (fcs=0)
- 3.01514 /NodeList/5/DeviceList/0/$ns3::CsmaNetDevice/TxQueue/Dequeue ns3::EthernetHeader ( length/type=0x800, source=00:00:00:00:00:07, destination=00:00:00:00:00:06) ns3::Ipv4Header (tos 0x0 DSCP Default ECN Not-ECT ttl 64 id 0 protocol 17 offset (bytes) 0 flags [none] length: 1052 10.1.2.5 > 10.1.2.4) ns3::UdpHeader (length: 1032 19 > 49153) Payload (size=1024) ns3::EthernetTrailer (fcs=0)
r 3.01524 /NodeList/4/DeviceList/0/$ns3::CsmaNetDevice/MacRx ns3::EthernetHeader ( length/type=0x800, source=00:00:00:00:00:07, destination=00:00:00:00:00:06) ns3::Ipv4Header (tos 0x0 DSCP Default ECN Not-ECT ttl 64 id 0 protocol 17 offset (bytes) 0 flags [none] length: 1052 10.1.2.5 > 10.1.2.4) ns3::UdpHeader (length: 1032 19 > 49153) Payload (size=1024) ns3::EthernetTrailer (fcs=0)
+ 4.009 /NodeList/3/DeviceList/0/$ns3::CsmaNetDevice/TxQueue/Enqueue ns3::EthernetHeader ( length/type=0x806, source=00:00:00:00:00:05, destination=ff:ff:ff:ff:ff:ff) ns3::ArpHeader (request source mac: 00-06-00:00:00:00:00:05 source ipv4: 10.1.2.3 dest ipv4: 10.1.2.5) Payload (size=18) ns3::EthernetTrailer (fcs=0)
- 4.009 /NodeList/3/DeviceList/0/$ns3::CsmaNetDevice/TxQueue/Dequeue ns3::EthernetHeader ( length/type=0x806, source=00:00:00:00:00:05, destination=ff:ff:ff:ff:ff:ff) ns3::ArpHeader (request source mac: 00-06-00:00:00:00:00:05 source ipv4: 10.1.2.3 dest ipv4: 10.1.2.5) Payload (size=18) ns3::EthernetTrailer (fcs=0)
r 4.00901 /NodeList/1/DeviceList/1/$ns3::CsmaNetDevice/MacRx ns3::EthernetHeader ( length/type=0x806, source=00:00:00:00:00:05, destination=ff:ff:ff:ff:ff:ff) ns3::ArpHeader (request source mac: 00-06-00:00:00:00:00:05 source ipv4: 10.1.2.3 dest ipv4: 10.1.2.5) Payload (size=18) ns3::EthernetTrailer (fcs=0)
r 4.00901 /NodeList/2/DeviceList/0/$ns3::CsmaNetDevice/MacRx ns3::EthernetHeader ( length/type=0x806, source=00:00:00:00:00:05, destination=ff:ff:ff:ff:ff:ff) ns3::ArpHeader (request source mac: 00-06-00:00:00:00:00:05 source ipv4: 10.1.2.3 dest ipv4: 10.1.2.5) Payload (size=18) ns3::EthernetTrailer (fcs=0)
r 4.00901 /NodeList/4/DeviceList/0/$ns3::CsmaNetDevice/MacRx ns3::EthernetHeader ( length/type=0x806, source=00:00:00:00:00:05, destination=ff:ff:ff:ff:ff:ff) ns3::ArpHeader (request source mac: 00-06-00:00:00:00:00:05 source ipv4: 10.1.2.3 dest ipv4: 10.1.2.5) Payload (size=18) ns3::EthernetTrailer (fcs=0)
r 4.00901 /NodeList/5/DeviceList/0/$ns3::CsmaNetDevice/MacRx ns3::EthernetHeader ( length/type=0x806, source=00:00:00:00:00:05, destination=ff:ff:ff:ff:ff:ff) ns3::ArpHeader (request source mac: 00-06-00:00:00:00:00:05 source ipv4: 10.1.2.3 dest ipv4: 10.1.2.5) Payload (size=18) ns3::EthernetTrailer (fcs=0)
+ 4.00901 /NodeList/5/DeviceList/0/$ns3::CsmaNetDevice/TxQueue/Enqueue ns3::EthernetHeader ( length/type=0x806, source=00:00:00:00:00:07, destination=00:00:00:00:00:05) ns3::ArpHeader (reply source mac: 00-06-00:00:00:00:00:07 source ipv4: 10.1.2.5 dest mac: 00-06-00:00:00:00:00:05 dest ipv4: 10.1.2.3) Payload (size=18) ns3::EthernetTrailer (fcs=0)
- 4.00901 /NodeList/5/DeviceList/0/$ns3::CsmaNetDevice/TxQueue/Dequeue ns3::EthernetHeader ( length/type=0x806, source=00:00:00:00:00:07, destination=00:00:00:00:00:05) ns3::ArpHeader (reply source mac: 00-06-00:00:00:00:00:07 source ipv4: 10.1.2.5 dest mac: 00-06-00:00:00:00:00:05 dest ipv4: 10.1.2.3) Payload (size=18) ns3::EthernetTrailer (fcs=0)
r 4.00901 /NodeList/6/DeviceList/0/$ns3::CsmaNetDevice/MacRx ns3::EthernetHeader ( length/type=0x806, source=00:00:00:00:00:05, destination=ff:ff:ff:ff:ff:ff) ns3::ArpHeader (request source mac: 00-06-00:00:00:00:00:05 source ipv4: 10.1.2.3 dest ipv4: 10.1.2.5) Payload (size=18) ns3::EthernetTrailer (fcs=0)
r 4.00901 /NodeList/7/DeviceList/0/$ns3::CsmaNetDevice/MacRx ns3::EthernetHeader ( length/type=0x806, source=00:00:00:00:00:05, destination=ff:ff:ff:ff:ff:ff) ns3::ArpHeader (request source mac: 00-06-00:00:00:00:00:05 source ipv4: 10.1.2.3 dest ipv4: 10.1.2.5) Payload (size=18) ns3::EthernetTrailer (fcs=0)
r 4.00902 /NodeList/3/DeviceList/0/$ns3::CsmaNetDevice/MacRx ns3::EthernetHeader ( length/type=0x806, source=00:00:00:00:00:07, destination=00:00:00:00:00:05) ns3::ArpHeader (reply source mac: 00-06-00:00:00:00:00:07 source ipv4: 10.1.2.5 dest mac: 00-06-00:00:00:00:00:05 dest ipv4: 10.1.2.3) Payload (size=18) ns3::EthernetTrailer (fcs=0)
+ 4.00902 /NodeList/3/DeviceList/0/$ns3::CsmaNetDevice/TxQueue/Enqueue ns3::EthernetHeader ( length/type=0x800, source=00:00:00:00:00:05, destination=00:00:00:00:00:07) ns3::Ipv4Header (tos 0x0 DSCP Default ECN Not-ECT ttl 64 id 0 protocol 17 offset (bytes) 0 flags [none] length: 1052 10.1.2.3 > 10.1.2.5) ns3::UdpHeader (length: 1032 49153 > 19) Payload (size=1024) ns3::EthernetTrailer (fcs=0)
- 4.00902 /NodeList/3/DeviceList/0/$ns3::CsmaNetDevice/TxQueue/Dequeue ns3::EthernetHeader ( length/type=0x800, source=00:00:00:00:00:05, destination=00:00:00:00:00:07) ns3::Ipv4Header (tos 0x0 DSCP Default ECN Not-ECT ttl 64 id 0 protocol 17 offset (bytes) 0 flags [none] length: 1052 10.1.2.3 > 10.1.2.5) ns3::UdpHeader (length: 1032 49153 > 19) Payload (size=1024) ns3::EthernetTrailer (fcs=0)
r 4.00912 /NodeList/5/DeviceList/0/$ns3::CsmaNetDevice/MacRx ns3::EthernetHeader ( length/type=0x800, source=00:00:00:00:00:05, destination=00:00:00:00:00:07) ns3::Ipv4Header (tos 0x0 DSCP Default ECN Not-ECT ttl 64 id 0 protocol 17 offset (bytes) 0 flags [none] length: 1052 10.1.2.3 > 10.1.2.5) ns3::UdpHeader (length: 1032 49153 > 19) Payload (size=1024) ns3::EthernetTrailer (fcs=0)
+ 4.01312 /NodeList/5/DeviceList/0/$ns3::CsmaNetDevice/TxQueue/Enqueue ns3::EthernetHeader ( length/type=0x806, source=00:00:00:00:00:07, destination=ff:ff:ff:ff:ff:ff) ns3::ArpHeader (request source mac: 00-06-00:00:00:00:00:07 source ipv4: 10.1.2.5 dest ipv4: 10.1.2.3) Payload (size=18) ns3::EthernetTrailer (fcs=0)
- 4.01312 /NodeList/5/DeviceList/0/$ns3::CsmaNetDevice/TxQueue/Dequeue ns3::EthernetHeader ( length/type=0x806, source=00:00:00:00:00:07, destination=ff:ff:ff:ff:ff:ff) ns3::ArpHeader (request source mac: 00-06-00:00:00:00:00:07 source ipv4: 10.1.2.5 dest ipv4: 10.1.2.3) Payload (size=18) ns3::EthernetTrailer (fcs=0)
r 4.01313 /NodeList/1/DeviceList/1/$ns3::CsmaNetDevice/MacRx ns3::EthernetHeader ( length/type=0x806, source=00:00:00:00:00:07, destination=ff:ff:ff:ff:ff:ff) ns3::ArpHeader (request source mac: 00-06-00:00:00:00:00:07 source ipv4: 10.1.2.5 dest ipv4: 10.1.2.3) Payload (size=18) ns3::EthernetTrailer (fcs=0)
r 4.01313 /NodeList/2/DeviceList/0/$ns3::CsmaNetDevice/MacRx ns3::EthernetHeader ( length/type=0x806, source=00:00:00:00:00:07, destination=ff:ff:ff:ff:ff:ff) ns3::ArpHeader (request source mac: 00-06-00:00:00:00:00:07 source ipv4: 10.1.2.5 dest ipv4: 10.1.2.3) Payload (size=18) ns3::EthernetTrailer (fcs=0)
r 4.01313 /NodeList/3/DeviceList/0/$ns3::CsmaNetDevice/MacRx ns3::EthernetHeader ( length/type=0x806, source=00:00:00:00:00:07, destination=ff:ff:ff:ff:ff:ff) ns3::ArpHeader (request source mac: 00-06-00:00:00:00:00:07 source ipv4: 10.1.2.5 dest ipv4: 10.1.2.3) Payload (size=18) ns3::EthernetTrailer (fcs=0)
+ 4.01313 /NodeList/3/DeviceList/0/$ns3::CsmaNetDevice/TxQueue/Enqueue ns3::EthernetHeader ( length/type=0x806, source=00:00:00:00:00:05, destination=00:00:00:00:00:07) ns3::ArpHeader (reply source mac: 00-06-00:00:00:00:00:05 source ipv4: 10.1.2.3 dest mac: 00-06-00:00:00:00:00:07 dest ipv4: 10.1.2.5) Payload (size=18) ns3::EthernetTrailer (fcs=0)
- 4.01313 /NodeList/3/DeviceList/0/$ns3::CsmaNetDevice/TxQueue/Dequeue ns3::EthernetHeader ( length/type=0x806, source=00:00:00:00:00:05, destination=00:00:00:00:00:07) ns3::ArpHeader (reply source mac: 00-06-00:00:00:00:00:05 source ipv4: 10.1.2.3 dest mac: 00-06-00:00:00:00:00:07 dest ipv4: 10.1.2.5) Payload (size=18) ns3::EthernetTrailer (fcs=0)
r 4.01313 /NodeList/4/DeviceList/0/$ns3::CsmaNetDevice/MacRx ns3::EthernetHeader ( length/type=0x806, source=00:00:00:00:00:07, destination=ff:ff:ff:ff:ff:ff) ns3::ArpHeader (request source mac: 00-06-00:00:00:00:00:07 source ipv4: 10.1.2.5 dest ipv4: 10.1.2.3) Payload (size=18) ns3::EthernetTrailer (fcs=0)
r 4.01313 /NodeList/6/DeviceList/0/$ns3::CsmaNetDevice/MacRx ns3::EthernetHeader ( length/type=0x806, source=00:00:00:00:00:07, destination=ff:ff:ff:ff:ff:ff) ns3::ArpHeader (request source mac: 00-06-00:00:00:00:00:07 source ipv4: 10.1.2.5 dest ipv4: 10.1.2.3) Payload (size=18) ns3::EthernetTrailer (fcs=0)
r 4.01313 /NodeList/7/DeviceList/0/$ns3::CsmaNetDevice/MacRx ns3::EthernetHeader ( length/type=0x806, source=00:00:00:00:00:07, destination=ff:ff:ff:ff:ff:ff) ns3::ArpHeader (request source mac: 00-06-00:00:00:00:00:07 source ipv4: 10.1.2.5 dest ipv4: 10.1.2.3) Payload (size=18) ns3::EthernetTrailer (fcs=0)
r 4.01314 /NodeList/5/DeviceList/0/$ns3::CsmaNetDevice/MacRx ns3::EthernetHeader ( length/type=0x806, source=00:00:00:00:00:05, destination=00:00:00:00:00:07) ns3::ArpHeader (reply source mac: 00-06-00:00:00:00:00:05 source ipv4: 10.1.2.3 dest mac: 00-06-00:00:00:00:00:07 dest ipv4: 10.1.2.5) Payload (size=18) ns3::EthernetTrailer (fcs=0)
+ 4.01314 /NodeList/5/DeviceList/0/$ns3::CsmaNetDevice/TxQueue/Enqueue ns3::EthernetHeader ( length/type=0x800, source=00:00:00:00:00:07, destination=00:00:00:00:00:05) ns3::Ipv4Header (tos 0x0 DSCP Default ECN Not-ECT ttl 64 id 0 protocol 17 offset (bytes) 0 flags [none] length: 1052 10.1.2.5 > 10.1.2.3) ns3::UdpHeader (length: 1032 19 > 49153) Payload (size=1024) ns3::EthernetTrailer (fcs=0)
- 4.01314 /NodeList/5/DeviceList/0/$ns3::CsmaNetDevice/TxQueue/Dequeue ns3::EthernetHeader ( length/type=0x800, source=00:00:00:00:00:07, destination=00:00:00:00:00:05) ns3::Ipv4Header (tos 0x0 DSCP Default ECN Not-ECT ttl 64 id 0 protocol 17 offset (bytes) 0 flags [none] length: 1052 10.1.2.5 > 10.1.2.3) ns3::UdpHeader (length: 1032 19 > 49153) Payload (size=1024) ns3::EthernetTrailer (fcs=0)
r 4.01324 /NodeList/3/DeviceList/0/$ns3::CsmaNetDevice/MacRx ns3::EthernetHeader ( length/type=0x800, source=00:00:00:00:00:07, destination=00:00:00:00:00:05) ns3::Ipv4Header (tos 0x0 DSCP Default ECN Not-ECT ttl 64 id 0 protocol 17 offset (bytes) 0 flags [none] length: 1052 10.1.2.5 > 10.1.2.3) ns3::UdpHeader (length: 1032 19 > 49153) Payload (size=1024) ns3::EthernetTrailer (fcs=0)
+ 5 /NodeList/2/DeviceList/0/$ns3::CsmaNetDevice/TxQueue/Enqueue ns3::EthernetHeader ( length/type=0x806, source=00:00:00:00:00:04, destination=ff:ff:ff:ff:ff:ff) ns3::ArpHeader (request source mac: 00-06-00:00:00:00:00:04 source ipv4: 10.1.2.2 dest ipv4: 10.1.2.5) Payload (size=18) ns3::EthernetTrailer (fcs=0)
- 5 /NodeList/2/DeviceList/0/$ns3::CsmaNetDevice/TxQueue/Dequeue ns3::EthernetHeader ( length/type=0x806, source=00:00:00:00:00:04, destination=ff:ff:ff:ff:ff:ff) ns3::ArpHeader (request source mac: 00-06-00:00:00:00:00:04 source ipv4: 10.1.2.2 dest ipv4: 10.1.2.5) Payload (size=18) ns3::EthernetTrailer (fcs=0)
r 5.00001 /NodeList/1/DeviceList/1/$ns3::CsmaNetDevice/MacRx ns3::EthernetHeader ( length/type=0x806, source=00:00:00:00:00:04, destination=ff:ff:ff:ff:ff:ff) ns3::ArpHeader (request source mac: 00-06-00:00:00:00:00:04 source ipv4: 10.1.2.2 dest ipv4: 10.1.2.5) Payload (size=18) ns3::EthernetTrailer (fcs=0)
r 5.00001 /NodeList/3/DeviceList/0/$ns3::CsmaNetDevice/MacRx ns3::EthernetHeader ( length/type=0x806, source=00:00:00:00:00:04, destination=ff:ff:ff:ff:ff:ff) ns3::ArpHeader (request source mac: 00-06-00:00:00:00:00:04 source ipv4: 10.1.2.2 dest ipv4: 10.1.2.5) Payload (size=18) ns3::EthernetTrailer (fcs=0)
r 5.00001 /NodeList/4/DeviceList/0/$ns3::CsmaNetDevice/MacRx ns3::EthernetHeader ( length/type=0x806, source=00:00:00:00:00:04, destination=ff:ff:ff:ff:ff:ff) ns3::ArpHeader (request source mac: 00-06-00:00:00:00:00:04 source ipv4: 10.1.2.2 dest ipv4: 10.1.2.5) Payload (size=18) ns3::EthernetTrailer (fcs=0)