+ 2.009 /NodeList/2/DeviceList/0/$ns3::CsmaNetDevice/TxQueue/Enqueue ns3::EthernetHeader ( length/type=0x806, source=00:00:00:00:00:04, destination=ff:ff:ff:ff:ff:ff) ns3::ArpHeader (request source mac: 00-06-00:00:00:00:00:04 source ipv4: 10.1.2.2 dest ipv4: 10.1.2.3) Payload (size=18) ns3::EthernetTrailer (fcs=0)
- 2.009 /NodeList/2/DeviceList/0/$ns3::CsmaNetDevice/TxQueue/Dequeue ns3::EthernetHeader ( length/type=0x806, source=00:00:00:00:00:04, destination=ff:ff:ff:ff:ff:ff) ns3::ArpHeader (request source mac: 00-06-00:00:00:00:00:04 source ipv4: 10.1.2.2 dest ipv4: 10.1.2.3) Payload (size=18) ns3::EthernetTrailer (fcs=0)
r 2.00901 /NodeList/1/DeviceList/1/$ns3::CsmaNetDevice/MacRx ns3::EthernetHeader ( length/type=0x806, source=00:00:00:00:00:04, destination=ff:ff:ff:ff:ff:ff) ns3::ArpHeader (request source mac: 00-06-00:00:00:00:00:04 source ipv4: 10.1.2.2 dest ipv4: 10.1.2.3) Payload (size=18) ns3::EthernetTrailer (fcs=0)
r 2.00901 /NodeList/3/DeviceList/0/$ns3::CsmaNetDevice/MacRx ns3::EthernetHeader ( length/type=0x806, source=00:00:00:00:00:04, destination=ff:ff:ff:ff:ff:ff) ns3::ArpHeader (request source mac: 00-06-00:00:00:00:00:04 source ipv4: 10.1.2.2 dest ipv4: 10.1.2.3) Payload (size=18) ns3::EthernetTrailer (fcs=0)
+ 2.00901 /NodeList/3/DeviceList/0/$ns3::CsmaNetDevice/TxQueue/Enqueue ns3::EthernetHeader ( length/type=0x806, source=00:00:00:00:00:05, destination=00:00:00:00:00:04) ns3::ArpHeader (reply source mac: 00-06-00:00:00:00:00:05 source ipv4: 10.1.2.3 dest mac: 00-06-00:00:00:00:00:04 dest ipv4: 10.1.2.2) Payload (size=18) ns3::EthernetTrailer (fcs=0)
- 2.00901 /NodeList/3/DeviceList/0/$ns3::CsmaNetDevice/TxQueue/Dequeue ns3::EthernetHeader ( length/type=0x806, source=00:00:00:00:00:05, destination=00:00:00:00:00:04) ns3::ArpHeader (reply source mac: 00-06-00:00:00:00:00:05 source ipv4: 10.1.2.3 dest mac: 00-06-00:00:00:00:00:04 dest ipv4: 10.1.2.2) Payload (size=18) ns3::EthernetTrailer (fcs=0)
r 2.00901 /NodeList/4/DeviceList/0/$ns3::CsmaNetDevice/MacRx ns3::EthernetHeader ( length/type=0x806, source=00:00:00:00:00:04, destination=ff:ff:ff:ff:ff:ff) ns3::ArpHeader (request source mac: 00-06-00:00:00:00:00:04 source ipv4: 10.1.2.2 dest ipv4: 10.1.2.3) Payload (size=18) ns3::EthernetTrailer (fcs=0)
r 2.00902 /NodeList/2/DeviceList/0/$ns3::CsmaNetDevice/MacRx ns3::EthernetHeader ( length/type=0x806, source=00:00:00:00:00:05, destination=00:00:00:00:00:04) ns3::ArpHeader (reply source mac: 00-06-00:00:00:00:00:05 source ipv4: 10.1.2.3 dest mac: 00-06-00:00:00:00:00:04 dest ipv4: 10.1.2.2) Payload (size=18) ns3::EthernetTrailer (fcs=0)
+ 2.00902 /NodeList/2/DeviceList/0/$ns3::CsmaNetDevice/TxQueue/Enqueue ns3::EthernetHeader ( length/type=0x800, source=00:00:00:00:00:04, destination=00:00:00:00:00:05) ns3::Ipv4Header (tos 0x0 DSCP Default ECN Not-ECT ttl 64 id 0 protocol 17 offset (bytes) 0 flags [none] length: 1052 10.1.2.2 > 10.1.2.3) ns3::UdpHeader (length: 1032 49153 > 19) Payload (size=1024) ns3::EthernetTrailer (fcs=0)
- 2.00902 /NodeList/2/DeviceList/0/$ns3::CsmaNetDevice/TxQueue/Dequeue ns3::EthernetHeader ( length/type=0x800, source=00:00:00:00:00:04, destination=00:00:00:00:00:05) ns3::Ipv4Header (tos 0x0 DSCP Default ECN Not-ECT ttl 64 id 0 protocol 17 offset (bytes) 0 flags [none] length: 1052 10.1.2.2 > 10.1.2.3) ns3::UdpHeader (length: 1032 49153 > 19) Payload (size=1024) ns3::EthernetTrailer (fcs=0)
r 2.00912 /NodeList/3/DeviceList/0/$ns3::CsmaNetDevice/MacRx ns3::EthernetHeader ( length/type=0x800, source=00:00:00:00:00:04, destination=00:00:00:00:00:05) ns3::Ipv4Header (tos 0x0 DSCP Default ECN Not-ECT ttl 64 id 0 protocol 17 offset (bytes) 0 flags [none] length: 1052 10.1.2.2 > 10.1.2.3) ns3::UdpHeader (length: 1032 49153 > 19) Payload (size=1024) ns3::EthernetTrailer (fcs=0)
+ 2.01512 /NodeList/3/DeviceList/0/$ns3::CsmaNetDevice/TxQueue/Enqueue ns3::EthernetHeader ( length/type=0x806, source=00:00:00:00:00:05, destination=ff:ff:ff:ff:ff:ff) ns3::ArpHeader (request source mac: 00-06-00:00:00:00:00:05 source ipv4: 10.1.2.3 dest ipv4: 10.1.2.2) Payload (size=18) ns3::EthernetTrailer (fcs=0)
- 2.01512 /NodeList/3/DeviceList/0/$ns3::CsmaNetDevice/TxQueue/Dequeue ns3::EthernetHeader ( length/type=0x806, source=00:00:00:00:00:05, destination=ff:ff:ff:ff:ff:ff) ns3::ArpHeader (request source mac: 00-06-00:00:00:00:00:05 source ipv4: 10.1.2.3 dest ipv4: 10.1.2.2) Payload (size=18) ns3::EthernetTrailer (fcs=0)
r 2.01513 /NodeList/1/DeviceList/1/$ns3::CsmaNetDevice/MacRx ns3::EthernetHeader ( length/type=0x806, source=00:00:00:00:00:05, destination=ff:ff:ff:ff:ff:ff) ns3::ArpHeader (request source mac: 00-06-00:00:00:00:00:05 source ipv4: 10.1.2.3 dest ipv4: 10.1.2.2) Payload (size=18) ns3::EthernetTrailer (fcs=0)
r 2.01513 /NodeList/2/DeviceList/0/$ns3::CsmaNetDevice/MacRx ns3::EthernetHeader ( length/type=0x806, source=00:00:00:00:00:05, destination=ff:ff:ff:ff:ff:ff) ns3::ArpHeader (request source mac: 00-06-00:00:00:00:00:05 source ipv4: 10.1.2.3 dest ipv4: 10.1.2.2) Payload (size=18) ns3::EthernetTrailer (fcs=0)
+ 2.01513 /NodeList/2/DeviceList/0/$ns3::CsmaNetDevice/TxQueue/Enqueue ns3::EthernetHeader ( length/type=0x806, source=00:00:00:00:00:04, destination=00:00:00:00:00:05) ns3::ArpHeader (reply source mac: 00-06-00:00:00:00:00:04 source ipv4: 10.1.2.2 dest mac: 00-06-00:00:00:00:00:05 dest ipv4: 10.1.2.3) Payload (size=18) ns3::EthernetTrailer (fcs=0)
- 2.01513 /NodeList/2/DeviceList/0/$ns3::CsmaNetDevice/TxQueue/Dequeue ns3::EthernetHeader ( length/type=0x806, source=00:00:00:00:00:04, destination=00:00:00:00:00:05) ns3::ArpHeader (reply source mac: 00-06-00:00:00:00:00:04 source ipv4: 10.1.2.2 dest mac: 00-06-00:00:00:00:00:05 dest ipv4: 10.1.2.3) Payload (size=18) ns3::EthernetTrailer (fcs=0)
r 2.01513 /NodeList/4/DeviceList/0/$ns3::CsmaNetDevice/MacRx ns3::EthernetHeader ( length/type=0x806, source=00:00:00:00:00:05, destination=ff:ff:ff:ff:ff:ff) ns3::ArpHeader (request source mac: 00-06-00:00:00:00:00:05 source ipv4: 10.1.2.3 dest ipv4: 10.1.2.2) Payload (size=18) ns3::EthernetTrailer (fcs=0)
r 2.01514 /NodeList/3/DeviceList/0/$ns3::CsmaNetDevice/MacRx ns3::EthernetHeader ( length/type=0x806, source=00:00:00:00:00:04, destination=00:00:00:00:00:05) ns3::ArpHeader (reply source mac: 00-06-00:00:00:00:00:04 source ipv4: 10.1.2.2 dest mac: 00-06-00:00:00:00:00:05 dest ipv4: 10.1.2.3) Payload (size=18) ns3::EthernetTrailer (fcs=0)
+ 2.01514 /NodeList/3/DeviceList/0/$ns3::CsmaNetDevice/TxQueue/Enqueue ns3::EthernetHeader ( length/type=0x800, source=00:00:00:00:00:05, destination=00:00:00:00:00:04) ns3::Ipv4Header (tos 0x0 DSCP Default ECN Not-ECT ttl 64 id 0 protocol 17 offset (bytes) 0 flags [none] length: 1052 10.1.2.3 > 10.1.2.2) ns3::UdpHeader (length: 1032 19 > 49153) Payload (size=1024) ns3::EthernetTrailer (fcs=0)
- 2.01514 /NodeList/3/DeviceList/0/$ns3::CsmaNetDevice/TxQueue/Dequeue ns3::EthernetHeader ( length/type=0x800, source=00:00:00:00:00:05, destination=00:00:00:00:00:04) ns3::Ipv4Header (tos 0x0 DSCP Default ECN Not-ECT ttl 64 id 0 protocol 17 offset (bytes) 0 flags [none] length: 1052 10.1.2.3 > 10.1.2.2) ns3::UdpHeader (length: 1032 19 > 49153) Payload (size=1024) ns3::EthernetTrailer (fcs=0)
r 2.01524 /NodeList/2/DeviceList/0/$ns3::CsmaNetDevice/MacRx ns3::EthernetHeader ( length/type=0x800, source=00:00:00:00:00:05, destination=00:00:00:00:00:04) ns3::Ipv4Header (tos 0x0 DSCP Default ECN Not-ECT ttl 64 id 0 protocol 17 offset (bytes) 0 flags [none] length: 1052 10.1.2.3 > 10.1.2.2) ns3::UdpHeader (length: 1032 19 > 49153) Payload (size=1024) ns3::EthernetTrailer (fcs=0)
+ 3.001 /NodeList/1/DeviceList/1/$ns3::CsmaNetDevice/TxQueue/Enqueue ns3::EthernetHeader ( length/type=0x806, source=00:00:00:00:00:03, destination=ff:ff:ff:ff:ff:ff) ns3::ArpHeader (request source mac: 00-06-00:00:00:00:00:03 source ipv4: 10.1.2.1 dest ipv4: 10.1.2.3) Payload (size=18) ns3::EthernetTrailer (fcs=0)
- 3.001 /NodeList/1/DeviceList/1/$ns3::CsmaNetDevice/TxQueue/Dequeue ns3::EthernetHeader ( length/type=0x806, source=00:00:00:00:00:03, destination=ff:ff:ff:ff:ff:ff) ns3::ArpHeader (request source mac: 00-06-00:00:00:00:00:03 source ipv4: 10.1.2.1 dest ipv4: 10.1.2.3) Payload (size=18) ns3::EthernetTrailer (fcs=0)
r 3.00101 /NodeList/2/DeviceList/0/$ns3::CsmaNetDevice/MacRx ns3::EthernetHeader ( length/type=0x806, source=00:00:00:00:00:03, destination=ff:ff:ff:ff:ff:ff) ns3::ArpHeader (request source mac: 00-06-00:00:00:00:00:03 source ipv4: 10.1.2.1 dest ipv4: 10.1.2.3) Payload (size=18) ns3::EthernetTrailer (fcs=0)
r 3.00101 /NodeList/3/DeviceList/0/$ns3::CsmaNetDevice/MacRx ns3::EthernetHeader ( length/type=0x806, source=00:00:00:00:00:03, destination=ff:ff:ff:ff:ff:ff) ns3::ArpHeader (request source mac: 00-06-00:00:00:00:00:03 source ipv4: 10.1.2.1 dest ipv4: 10.1.2.3) Payload (size=18) ns3::EthernetTrailer (fcs=0)
+ 3.00101 /NodeList/3/DeviceList/0/$ns3::CsmaNetDevice/TxQueue/Enqueue ns3::EthernetHeader ( length/type=0x806, source=00:00:00:00:00:05, destination=00:00:00:00:00:03) ns3::ArpHeader (reply source mac: 00-06-00:00:00:00:00:05 source ipv4: 10.1.2.3 dest mac: 00-06-00:00:00:00:00:03 dest ipv4: 10.1.2.1) Payload (size=18) ns3::EthernetTrailer (fcs=0)
- 3.00101 /NodeList/3/DeviceList/0/$ns3::CsmaNetDevice/TxQueue/Dequeue ns3::EthernetHeader ( length/type=0x806, source=00:00:00:00:00:05, destination=00:00:00:00:00:03) ns3::ArpHeader (reply source mac: 00-06-00:00:00:00:00:05 source ipv4: 10.1.2.3 dest mac: 00-06-00:00:00:00:00:03 dest ipv4: 10.1.2.1) Payload (size=18) ns3::EthernetTrailer (fcs=0)
r 3.00101 /NodeList/4/DeviceList/0/$ns3::CsmaNetDevice/MacRx ns3::EthernetHeader ( length/type=0x806, source=00:00:00:00:00:03, destination=ff:ff:ff:ff:ff:ff) ns3::ArpHeader (request source mac: 00-06-00:00:00:00:00:03 source ipv4: 10.1.2.1 dest ipv4: 10.1.2.3) Payload (size=18) ns3::EthernetTrailer (fcs=0)
r 3.00102 /NodeList/1/DeviceList/1/$ns3::CsmaNetDevice/MacRx ns3::EthernetHeader ( length/type=0x806, source=00:00:00:00:00:05, destination=00:00:00:00:00:03) ns3::ArpHeader (reply source mac: 00-06-00:00:00:00:00:05 source ipv4: 10.1.2.3 dest mac: 00-06-00:00:00:00:00:03 dest ipv4: 10.1.2.1) Payload (size=18) ns3::EthernetTrailer (fcs=0)
+ 3.00102 /NodeList/1/DeviceList/1/$ns3::CsmaNetDevice/TxQueue/Enqueue ns3::EthernetHeader ( length/type=0x800, source=00:00:00:00:00:03, destination=00:00:00:00:00:05) ns3::Ipv4Header (tos 0x0 DSCP Default ECN Not-ECT ttl 64 id 0 protocol 17 offset (bytes) 0 flags [none] length: 1052 10.1.2.1 > 10.1.2.3) ns3::UdpHeader (length: 1032 49153 > 19) Payload (size=1024) ns3::EthernetTrailer (fcs=0)
- 3.00102 /NodeList/1/DeviceList/1/$ns3::CsmaNetDevice/TxQueue/Dequeue ns3::EthernetHeader ( length/type=0x800, source=00:00:00:00:00:03, destination=00:00:00:00:00:05) ns3::Ipv4Header (tos 0x0 DSCP Default ECN Not-ECT ttl 64 id 0 protocol 17 offset (bytes) 0 flags [none] length: 1052 10.1.2.1 > 10.1.2.3) ns3::UdpHeader (length: 1032 49153 > 19) Payload (size=1024) ns3::EthernetTrailer (fcs=0)
r 3.00112 /NodeList/3/DeviceList/0/$ns3::CsmaNetDevice/MacRx ns3::EthernetHeader ( length/type=0x800, source=00:00:00:00:00:03, destination=00:00:00:00:00:05) ns3::Ipv4Header (tos 0x0 DSCP Default ECN Not-ECT ttl 64 id 0 protocol 17 offset (bytes) 0 flags [none] length: 1052 10.1.2.1 > 10.1.2.3) ns3::UdpHeader (length: 1032 49153 > 19) Payload (size=1024) ns3::EthernetTrailer (fcs=0)
+ 3.00112 /NodeList/3/DeviceList/0/$ns3::CsmaNetDevice/TxQueue/Enqueue ns3::EthernetHeader ( length/type=0x806, source=00:00:00:00:00:05, destination=ff:ff:ff:ff:ff:ff) ns3::ArpHeader (request source mac: 00-06-00:00:00:00:00:05 source ipv4: 10.1.2.3 dest ipv4: 10.1.2.1) Payload (size=18) ns3::EthernetTrailer (fcs=0)
- 3.00112 /NodeList/3/DeviceList/0/$ns3::CsmaNetDevice/TxQueue/Dequeue ns3::EthernetHeader ( length/type=0x806, source=00:00:00:00:00:05, destination=ff:ff:ff:ff:ff:ff) ns3::ArpHeader (request source mac: 00-06-00:00:00:00:00:05 source ipv4: 10.1.2.3 dest ipv4: 10.1.2.1) Payload (size=18) ns3::EthernetTrailer (fcs=0)
r 3.00113 /NodeList/1/DeviceList/1/$ns3::CsmaNetDevice/MacRx ns3::EthernetHeader ( length/type=0x806, source=00:00:00:00:00:05, destination=ff:ff:ff:ff:ff:ff) ns3::ArpHeader (request source mac: 00-06-00:00:00:00:00:05 source ipv4: 10.1.2.3 dest ipv4: 10.1.2.1) Payload (size=18) ns3::EthernetTrailer (fcs=0)
+ 3.00113 /NodeList/1/DeviceList/1/$ns3::CsmaNetDevice/TxQueue/Enqueue ns3::EthernetHeader ( length/type=0x806, source=00:00:00:00:00:03, destination=00:00:00:00:00:05) ns3::ArpHeader (reply source mac: 00-06-00:00:00:00:00:03 source ipv4: 10.1.2.1 dest mac: 00-06-00:00:00:00:00:05 dest ipv4: 10.1.2.3) Payload (size=18) ns3::EthernetTrailer (fcs=0)
- 3.00113 /NodeList/1/DeviceList/1/$ns3::CsmaNetDevice/TxQueue/Dequeue ns3::EthernetHeader ( length/type=0x806, source=00:00:00:00:00:03, destination=00:00:00:00:00:05) ns3::ArpHeader (reply source mac: 00-06-00:00:00:00:00:03 source ipv4: 10.1.2.1 dest mac: 00-06-00:00:00:00:00:05 dest ipv4: 10.1.2.3) Payload (size=18) ns3::EthernetTrailer (fcs=0)
r 3.00113 /NodeList/2/DeviceList/0/$ns3::CsmaNetDevice/MacRx ns3::EthernetHeader ( length/type=0x806, source=00:00:00:00:00:05, destination=ff:ff:ff:ff:ff:ff) ns3::ArpHeader (request source mac: 00-06-00:00:00:00:00:05 source ipv4: 10.1.2.3 dest ipv4: 10.1.2.1) Payload (size=18) ns3::EthernetTrailer (fcs=0)
r 3.00113 /NodeList/4/DeviceList/0/$ns3::CsmaNetDevice/MacRx ns3::EthernetHeader ( length/type=0x806, source=00:00:00:00:00:05, destination=ff:ff:ff:ff:ff:ff) ns3::ArpHeader (request source mac: 00-06-00:00:00:00:00:05 source ipv4: 10.1.2.3 dest ipv4: 10.1.2.1) Payload (size=18) ns3::EthernetTrailer (fcs=0)
r 3.00114 /NodeList/3/DeviceList/0/$ns3::CsmaNetDevice/MacRx ns3::EthernetHeader ( length/type=0x806, source=00:00:00:00:00:03, destination=00:00:00:00:00:05) ns3::ArpHeader (reply source mac: 00-06-00:00:00:00:00:03 source ipv4: 10.1.2.1 dest mac: 00-06-00:00:00:00:00:05 dest ipv4: 10.1.2.3) Payload (size=18) ns3::EthernetTrailer (fcs=0)
+ 3.00114 /NodeList/3/DeviceList/0/$ns3::CsmaNetDevice/TxQueue/Enqueue ns3::EthernetHeader ( length/type=0x800, source=00:00:00:00:00:05, destination=00:00:00:00:00:03) ns3::Ipv4Header (tos 0x0 DSCP Default ECN Not-ECT ttl 64 id 0 protocol 17 offset (bytes) 0 flags [none] length: 1052 10.1.2.3 > 10.1.2.1) ns3::UdpHeader (length: 1032 19 > 49153) Payload (size=1024) ns3::EthernetTrailer (fcs=0)
- 3.00114 /NodeList/3/DeviceList/0/$ns3::CsmaNetDevice/TxQueue/Dequeue ns3::EthernetHeader ( length/type=0x800, source=00:00:00:00:00:05, destination=00:00:00:00:00:03) ns3::Ipv4Header (tos 0x0 DSCP Default ECN Not-ECT ttl 64 id 0 protocol 17 offset (bytes) 0 flags [none] length: 1052 10.1.2.3 > 10.1.2.1) ns3::UdpHeader (length: 1032 19 > 49153) Payload (size=1024) ns3::EthernetTrailer (fcs=0)
r 3.00124 /NodeList/1/DeviceList/1/$ns3::CsmaNetDevice/MacRx ns3::EthernetHeader ( length/type=0x800, source=00:00:00:00:00:05, destination=00:00:00:00:00:03) ns3::Ipv4Header (tos 0x0 DSCP Default ECN Not-ECT ttl 64 id 0 protocol 17 offset (bytes) 0 flags [none] length: 1052 10.1.2.3 > 10.1.2.1) ns3::UdpHeader (length: 1032 19 > 49153) Payload (size=1024) ns3::EthernetTrailer (fcs=0)
+ 4 /NodeList/6/DeviceList/0/$ns3::CsmaNetDevice/TxQueue/Enqueue ns3::EthernetHeader ( length/type=0x806, source=00:00:00:00:00:09, destination=ff:ff:ff:ff:ff:ff) ns3::ArpHeader (request source mac: 00-06-00:00:00:00:00:09 source ipv4: 10.1.3.3 dest ipv4: 10.1.3.1) Payload (size=18) ns3::EthernetTrailer (fcs=0)
- 4 /NodeList/6/DeviceList/0/$ns3::CsmaNetDevice/TxQueue/Dequeue ns3::EthernetHeader ( length/type=0x806, source=00:00:00:00:00:09, destination=ff:ff:ff:ff:ff:ff) ns3::ArpHeader (request source mac: 00-06-00:00:00:00:00:09 source ipv4: 10.1.3.3 dest ipv4: 10.1.3.1) Payload (size=18) ns3::EthernetTrailer (fcs=0)
r 4.00001 /NodeList/0/DeviceList/1/$ns3::CsmaNetDevice/MacRx ns3::EthernetHeader ( length/type=0x806, source=00:00:00:00:00:09, destination=ff:ff:ff:ff:ff:ff) ns3::ArpHeader (request source mac: 00-06-00:00:00:00:00:09 source ipv4: 10.1.3.3 dest ipv4: 10.1.3.1) Payload (size=18) ns3::EthernetTrailer (fcs=0)
+ 4.00001 /NodeList/0/DeviceList/1/$ns3::CsmaNetDevice/TxQueue/Enqueue ns3::EthernetHeader ( length/type=0x806, source=00:00:00:00:00:07, destination=00:00:00:00:00:09) ns3::ArpHeader (reply source mac: 00-06-00:00:00:00:00:07 source ipv4: 10.1.3.1 dest mac: 00-06-00:00:00:00:00:09 dest ipv4: 10.1.3.3) Payload (size=18) ns3::EthernetTrailer (fcs=0)
- 4.00001 /NodeList/0/DeviceList/1/$ns3::CsmaNetDevice/TxQueue/Dequeue ns3::EthernetHeader ( length/type=0x806, source=00:00:00:00:00:07, destination=00:00:00:00:00:09) ns3::ArpHeader (reply source mac: 00-06-00:00:00:00:00:07 source ipv4: 10.1.3.1 dest mac: 00-06-00:00:00:00:00:09 dest ipv4: 10.1.3.3) Payload (size=18) ns3::EthernetTrailer (fcs=0)
r 4.00001 /NodeList/5/DeviceList/0/$ns3::CsmaNetDevice/MacRx ns3::EthernetHeader ( length/type=0x806, source=00:00:00:00:00:09, destination=ff:ff:ff:ff:ff:ff) ns3::ArpHeader (request source mac: 00-06-00:00:00:00:00:09 source ipv4: 10.1.3.3 dest ipv4: 10.1.3.1) Payload (size=18) ns3::EthernetTrailer (fcs=0)
r 4.00001 /NodeList/7/DeviceList/0/$ns3::CsmaNetDevice/MacRx ns3::EthernetHeader ( length/type=0x806, source=00:00:00:00:00:09, destination=ff:ff:ff:ff:ff:ff) ns3::ArpHeader (request source mac: 00-06-00:00:00:00:00:09 source ipv4: 10.1.3.3 dest ipv4: 10.1.3.1) Payload (size=18) ns3::EthernetTrailer (fcs=0)
r 4.00002 /NodeList/6/DeviceList/0/$ns3::CsmaNetDevice/MacRx ns3::EthernetHeader ( length/type=0x806, source=00:00:00:00:00:07, destination=00:00:00:00:00:09) ns3::ArpHeader (reply source mac: 00-06-00:00:00:00:00:07 source ipv4: 10.1.3.1 dest mac: 00-06-00:00:00:00:00:09 dest ipv4: 10.1.3.3) Payload (size=18) ns3::EthernetTrailer (fcs=0)
+ 4.00002 /NodeList/6/DeviceList/0/$ns3::CsmaNetDevice/TxQueue/Enqueue ns3::EthernetHeader ( length/type=0x800, source=00:00:00:00:00:09, destination=00:00:00:00:00:07) ns3::Ipv4Header (tos 0x0 DSCP Default ECN Not-ECT ttl 64 id 0 protocol 17 offset (bytes) 0 flags [none] length: 1052 10.1.3.3 > 10.1.2.3) ns3::UdpHeader (length: 1032 49153 > 19) Payload (size=1024) ns3::EthernetTrailer (fcs=0)
- 4.00002 /NodeList/6/DeviceList/0/$ns3::CsmaNetDevice/TxQueue/Dequeue ns3::EthernetHeader ( length/type=0x800, source=00:00:00:00:00:09, destination=00:00:00:00:00:07) ns3::Ipv4Header (tos 0x0 DSCP Default ECN Not-ECT ttl 64 id 0 protocol 17 offset (bytes) 0 flags [none] length: 1052 10.1.3.3 > 10.1.2.3) ns3::UdpHeader (length: 1032 49153 > 19) Payload (size=1024) ns3::EthernetTrailer (fcs=0)
r 4.00012 /NodeList/0/DeviceList/1/$ns3::CsmaNetDevice/MacRx ns3::EthernetHeader ( length/type=0x800, source=00:00:00:00:00:09, destination=00:00:00:00:00:07) ns3::Ipv4Header (tos 0x0 DSCP Default ECN Not-ECT ttl 64 id 0 protocol 17 offset (bytes) 0 flags [none] length: 1052 10.1.3.3 > 10.1.2.3) ns3::UdpHeader (length: 1032 49153 > 19) Payload (size=1024) ns3::EthernetTrailer (fcs=0)
+ 4.0038 /NodeList/1/DeviceList/1/$ns3::CsmaNetDevice/TxQueue/Enqueue ns3::EthernetHeader ( length/type=0x800, source=00:00:00:00:00:03, destination=00:00:00:00:00:05) ns3::Ipv4Header (tos 0x0 DSCP Default ECN Not-ECT ttl 62 id 0 protocol 17 offset (bytes) 0 flags [none] length: 1052 10.1.3.3 > 10.1.2.3) ns3::UdpHeader (length: 1032 49153 > 19) Payload (size=1024) ns3::EthernetTrailer (fcs=0)
- 4.0038 /NodeList/1/DeviceList/1/$ns3::CsmaNetDevice/TxQueue/Dequeue ns3::EthernetHeader ( length/type=0x800, source=00:00:00:00:00:03, destination=00:00:00:00:00:05) ns3::Ipv4Header (tos 0x0 DSCP Default ECN Not-ECT ttl 62 id 0 protocol 17 offset (bytes) 0 flags [none] length: 1052 10.1.3.3 > 10.1.2.3) ns3::UdpHeader (length: 1032 49153 > 19) Payload (size=1024) ns3::EthernetTrailer (fcs=0)
r 4.0039 /NodeList/3/DeviceList/0/$ns3::CsmaNetDevice/MacRx ns3::EthernetHeader ( length/type=0x800, source=00:00:00:00:00:03, destination=00:00:00:00:00:05) ns3::Ipv4Header (tos 0x0 DSCP Default ECN Not-ECT ttl 62 id 0 protocol 17 offset (bytes) 0 flags [none] length: 1052 10.1.3.3 > 10.1.2.3) ns3::UdpHeader (length: 1032 49153 > 19) Payload (size=1024) ns3::EthernetTrailer (fcs=0)
+ 4.0039 /NodeList/3/DeviceList/0/$ns3::CsmaNetDevice/TxQueue/Enqueue ns3::EthernetHeader ( length/type=0x800, source=00:00:00:00:00:05, destination=00:00:00:00:00:03) ns3::Ipv4Header (tos 0x0 DSCP Default ECN Not-ECT ttl 64 id 0 protocol 17 offset (bytes) 0 flags [none] length: 1052 10.1.2.3 > 10.1.3.3) ns3::UdpHeader (length: 1032 19 > 49153) Payload (size=1024) ns3::EthernetTrailer (fcs=0)
- 4.0039 /NodeList/3/DeviceList/0/$ns3::CsmaNetDevice/TxQueue/Dequeue ns3::EthernetHeader ( length/type=0x800, source=00:00:00:00:00:05, destination=00:00:00:00:00:03) ns3::Ipv4Header (tos 0x0 DSCP Default ECN Not-ECT ttl 64 id 0 protocol 17 offset (bytes) 0 flags [none] length: 1052 10.1.2.3 > 10.1.3.3) ns3::UdpHeader (length: 1032 19 > 49153) Payload (size=1024) ns3::EthernetTrailer (fcs=0)
r 4.00399 /NodeList/1/DeviceList/1/$ns3::CsmaNetDevice/MacRx ns3::EthernetHeader ( length/type=0x800, source=00:00:00:00:00:05, destination=00:00:00:00:00:03) ns3::Ipv4Header (tos 0x0 DSCP Default ECN Not-ECT ttl 64 id 0 protocol 17 offset (bytes) 0 flags [none] length: 1052 10.1.2.3 > 10.1.3.3) ns3::UdpHeader (length: 1032 19 > 49153) Payload (size=1024) ns3::EthernetTrailer (fcs=0)
+ 4.01367 /NodeList/0/DeviceList/1/$ns3::CsmaNetDevice/TxQueue/Enqueue ns3::EthernetHeader ( length/type=0x806, source=00:00:00:00:00:07, destination=ff:ff:ff:ff:ff:ff) ns3::ArpHeader (request source mac: 00-06-00:00:00:00:00:07 source ipv4: 10.1.3.1 dest ipv4: 10.1.3.3) Payload (size=18) ns3::EthernetTrailer (fcs=0)
- 4.01367 /NodeList/0/DeviceList/1/$ns3::CsmaNetDevice/TxQueue/Dequeue ns3::EthernetHeader ( length/type=0x806, source=00:00:00:00:00:07, destination=ff:ff:ff:ff:ff:ff) ns3::ArpHeader (request source mac: 00-06-00:00:00:00:00:07 source ipv4: 10.1.3.1 dest ipv4: 10.1.3.3) Payload (size=18) ns3::EthernetTrailer (fcs=0)
r 4.01369 /NodeList/5/DeviceList/0/$ns3::CsmaNetDevice/MacRx ns3::EthernetHeader ( length/type=0x806, source=00:00:00:00:00:07, destination=ff:ff:ff:ff:ff:ff) ns3::ArpHeader (request source mac: 00-06-00:00:00:00:00:07 source ipv4: 10.1.3.1 dest ipv4: 10.1.3.3) Payload (size=18) ns3::EthernetTrailer (fcs=0)
r 4.01369 /NodeList/6/DeviceList/0/$ns3::CsmaNetDevice/MacRx ns3::EthernetHeader ( length/type=0x806, source=00:00:00:00:00:07, destination=ff:ff:ff:ff:ff:ff) ns3::ArpHeader (request source mac: 00-06-00:00:00:00:00:07 source ipv4: 10.1.3.1 dest ipv4: 10.1.3.3) Payload (size=18) ns3::EthernetTrailer (fcs=0)
+ 4.01369 /NodeList/6/DeviceList/0/$ns3::CsmaNetDevice/TxQueue/Enqueue ns3::EthernetHeader ( length/type=0x806, source=00:00:00:00:00:09, destination=00:00:00:00:00:07) ns3::ArpHeader (reply source mac: 00-06-00:00:00:00:00:09 source ipv4: 10.1.3.3 dest mac: 00-06-00:00:00:00:00:07 dest ipv4: 10.1.3.1) Payload (size=18) ns3::EthernetTrailer (fcs=0)
- 4.01369 /NodeList/6/DeviceList/0/$ns3::CsmaNetDevice/TxQueue/Dequeue ns3::EthernetHeader ( length/type=0x806, source=00:00:00:00:00:09, destination=00:00:00:00:00:07) ns3::ArpHeader (reply source mac: 00-06-00:00:00:00:00:09 source ipv4: 10.1.3.3 dest mac: 00-06-00:00:00:00:00:07 dest ipv4: 10.1.3.1) Payload (size=18) ns3::EthernetTrailer (fcs=0)
r 4.01369 /NodeList/7/DeviceList/0/$ns3::CsmaNetDevice/MacRx ns3::EthernetHeader ( length/type=0x806, source=00:00:00:00:00:07, destination=ff:ff:ff:ff:ff:ff) ns3::ArpHeader (request source mac: 00-06-00:00:00:00:00:07 source ipv4: 10.1.3.1 dest ipv4: 10.1.3.3) Payload (size=18) ns3::EthernetTrailer (fcs=0)
r 4.0137 /NodeList/0/DeviceList/1/$ns3::CsmaNetDevice/MacRx ns3::EthernetHeader ( length/type=0x806, source=00:00:00:00:00:09, destination=00:00:00:00:00:07) ns3::ArpHeader (reply source mac: 00-06-00:00:00:00:00:09 source ipv4: 10.1.3.3 dest mac: 00-06-00:00:00:00:00:07 dest ipv4: 10.1.3.1) Payload (size=18) ns3::EthernetTrailer (fcs=0)
+ 4.0137 /NodeList/0/DeviceList/1/$ns3::CsmaNetDevice/TxQueue/Enqueue ns3::EthernetHeader ( length/type=0x800, source=00:00:00:00:00:07, destination=00:00:00:00:00:09) ns3::Ipv4Header (tos 0x0 DSCP Default ECN Not-ECT ttl 62 id 0 protocol 17 offset (bytes) 0 flags [none] length: 1052 10.1.2.3 > 10.1.3.3) ns3::UdpHeader (length: 1032 19 > 49153) Payload (size=1024) ns3::EthernetTrailer (fcs=0)
- 4.0137 /NodeList/0/DeviceList/1/$ns3::CsmaNetDevice/TxQueue/Dequeue ns3::EthernetHeader ( length/type=0x800, source=00:00:00:00:00:07, destination=00:00:00:00:00:09) ns3::Ipv4Header (tos 0x0 DSCP Default ECN Not-ECT ttl 62 id 0 protocol 17 offset (bytes) 0 flags [none] length: 1052 10.1.2.3 > 10.1.3.3) ns3::UdpHeader (length: 1032 19 > 49153) Payload (size=1024) ns3::EthernetTrailer (fcs=0)
r 4.01379 /NodeList/6/DeviceList/0/$ns3::CsmaNetDevice/MacRx ns3::EthernetHeader ( length/type=0x800, source=00:00:00:00:00:07, destination=00:00:00:00:00:09) ns3::Ipv4Header (tos 0x0 DSCP Default ECN Not-ECT ttl 62 id 0 protocol 17 offset (bytes) 0 flags [none] length: 1052 10.1.2.3 > 10.1.3.3) ns3::UdpHeader (length: 1032 19 > 49153) Payload (size=1024) ns3::EthernetTrailer (fcs=0)
+ 5.009 /NodeList/5/DeviceList/0/$ns3::CsmaNetDevice/TxQueue/Enqueue ns3::EthernetHeader ( length/type=0x806, source=00:00:00:00:00:08, destination=ff:ff:ff:ff:ff:ff) ns3::ArpHeader (request source mac: 00-06-00:00:00:00:00:08 source ipv4: 10.1.3.2 dest ipv4: 10.1.3.1) Payload (size=18) ns3::EthernetTrailer (fcs=0)
- 5.009 /NodeList/5/DeviceList/0/$ns3::CsmaNetDevice/TxQueue/Dequeue ns3::EthernetHeader ( length/type=0x806, source=00:00:00:00:00:08, destination=ff:ff:ff:ff:ff:ff) ns3::ArpHeader (request source mac: 00-06-00:00:00:00:00:08 source ipv4: 10.1.3.2 dest ipv4: 10.1.3.1) Payload (size=18) ns3::EthernetTrailer (fcs=0)
r 5.00901 /NodeList/0/DeviceList/1/$ns3::CsmaNetDevice/MacRx ns3::EthernetHeader ( length/type=0x806, source=00:00:00:00:00:08, destination=ff:ff:ff:ff:ff:ff) ns3::ArpHeader (request source mac: 00-06-00:00:00:00:00:08 source ipv4: 10.1.3.2 dest ipv4: 10.1.3.1) Payload (size=18) ns3::EthernetTrailer (fcs=0)
+ 5.00901 /NodeList/0/DeviceList/1/$ns3::CsmaNetDevice/TxQueue/Enqueue ns3::EthernetHeader ( length/type=0x806, source=00:00:00:00:00:07, destination=00:00:00:00:00:08) ns3::ArpHeader (reply source mac: 00-06-00:00:00:00:00:07 source ipv4: 10.1.3.1 dest mac: 00-06-00:00:00:00:00:08 dest ipv4: 10.1.3.2) Payload (size=18) ns3::EthernetTrailer (fcs=0)
- 5.00901 /NodeList/0/DeviceList/1/$ns3::CsmaNetDevice/TxQueue/Dequeue ns3::EthernetHeader ( length/type=0x806, source=00:00:00:00:00:07, destination=00:00:00:00:00:08) ns3::ArpHeader (reply source mac: 00-06-00:00:00:00:00:07 source ipv4: 10.1.3.1 dest mac: 00-06-00:00:00:00:00:08 dest ipv4: 10.1.3.2) Payload (size=18) ns3::EthernetTrailer (fcs=0)
r 5.00901 /NodeList/6/DeviceList/0/$ns3::CsmaNetDevice/MacRx ns3::EthernetHeader ( length/type=0x806, source=00:00:00:00:00:08, destination=ff:ff:ff:ff:ff:ff) ns3::ArpHeader (request source mac: 00-06-00:00:00:00:00:08 source ipv4: 10.1.3.2 dest ipv4: 10.1.3.1) Payload (size=18) ns3::EthernetTrailer (fcs=0)
r 5.00901 /NodeList/7/DeviceList/0/$ns3::CsmaNetDevice/MacRx ns3::EthernetHeader ( length/type=0x806, source=00:00:00:00:00:08, destination=ff:ff:ff:ff:ff:ff) ns3::ArpHeader (request source mac: 00-06-00:00:00:00:00:08 source ipv4: 10.1.3.2 dest ipv4: 10.1.3.1) Payload (size=18) ns3::EthernetTrailer (fcs=0)
r 5.00902 /NodeList/5/DeviceList/0/$ns3::CsmaNetDevice/MacRx ns3::EthernetHeader ( length/type=0x806, source=00:00:00:00:00:07, destination=00:00:00:00:00:08) ns3::ArpHeader (reply source mac: 00-06-00:00:00:00:00:07 source ipv4: 10.1.3.1 dest mac: 00-06-00:00:00:00:00:08 dest ipv4: 10.1.3.2) Payload (size=18) ns3::EthernetTrailer (fcs=0)
+ 5.00902 /NodeList/5/DeviceList/0/$ns3::CsmaNetDevice/TxQueue/Enqueue ns3::EthernetHeader ( length/type=0x800, source=00:00:00:00:00:08, destination=00:00:00:00:00:07) ns3::Ipv4Header (tos 0x0 DSCP Default ECN Not-ECT ttl 64 id 0 protocol 17 offset (bytes) 0 flags [none] length: 1052 10.1.3.2 > 10.1.2.3) ns3::UdpHeader (length: 1032 49153 > 19) Payload (size=1024) ns3::EthernetTrailer (fcs=0)
- 5.00902 /NodeList/5/DeviceList/0/$ns3::CsmaNetDevice/TxQueue/Dequeue ns3::EthernetHeader ( length/type=0x800, source=00:00:00:00:00:08, destination=00:00:00:00:00:07) ns3::Ipv4Header (tos 0x0 DSCP Default ECN Not-ECT ttl 64 id 0 protocol 17 offset (bytes) 0 flags [none] length: 1052 10.1.3.2 > 10.1.2.3) ns3::UdpHeader (length: 1032 49153 > 19) Payload (size=1024) ns3::EthernetTrailer (fcs=0)
r 5.00912 /NodeList/0/DeviceList/1/$ns3::CsmaNetDevice/MacRx ns3::EthernetHeader ( length/type=0x800, source=00:00:00:00:00:08, destination=00:00:00:00:00:07) ns3::Ipv4Header (tos 0x0 DSCP Default ECN Not-ECT ttl 64 id 0 protocol 17 offset (bytes) 0 flags [none] length: 1052 10.1.3.2 > 10.1.2.3) ns3::UdpHeader (length: 1032 49153 > 19) Payload (size=1024) ns3::EthernetTrailer (fcs=0)
+ 5.0128 /NodeList/1/DeviceList/1/$ns3::CsmaNetDevice/TxQueue/Enqueue ns3::EthernetHeader ( length/type=0x800, source=00:00:00:00:00:03, destination=00:00:00:00:00:05) ns3::Ipv4Header (tos 0x0 DSCP Default ECN Not-ECT ttl 62 id 0 protocol 17 offset (bytes) 0 flags [none] length: 1052 10.1.3.2 > 10.1.2.3) ns3::UdpHeader (length: 1032 49153 > 19) Payload (size=1024) ns3::EthernetTrailer (fcs=0)
- 5.0128 /NodeList/1/DeviceList/1/$ns3::CsmaNetDevice/TxQueue/Dequeue ns3::EthernetHeader ( length/type=0x800, source=00:00:00:00:00:03, destination=00:00:00:00:00:05) ns3::Ipv4Header (tos 0x0 DSCP Default ECN Not-ECT ttl 62 id 0 protocol 17 offset (bytes) 0 flags [none] length: 1052 10.1.3.2 > 10.1.2.3) ns3::UdpHeader (length: 1032 49153 > 19) Payload (size=1024) ns3::EthernetTrailer (fcs=0)